                         Program Version 6.0.0  -   RELEASE  -
|  1> %pal nprocs=36
|  2>    end
|  3> ! Opt freq WB97X-D3 def2-TZVP
|  4>
|  5> %geom
|  6> MaxIter 1000
|  7> end
|  8>
|  9> * xyzfile -1 1 /misc/home6/u2766/task/w1/particle-Cl.xyz **                         ****END OF INPUT****
 Total Charge           Charge          ....   -1
 Multiplicity           Mult            ....    1
 Number of Electrons    NEL             ....  102
Dispersion correction           -0.011195307
FINAL SINGLE POINT ENERGY      -998.095793549925
Dispersion correction             ... done (  0.0 sec)
Dispersion correction           -0.011156430
FINAL SINGLE POINT ENERGY      -998.115704351830
Dispersion correction             ... done (  0.0 sec)
Dispersion correction           -0.011111259
FINAL SINGLE POINT ENERGY      -998.119730261415
Dispersion correction             ... done (  0.0 sec)
FINAL SINGLE POINT ENERGY      -998.123728755426
FINAL SINGLE POINT ENERGY      -998.124669083807
FINAL SINGLE POINT ENERGY      -998.124998268732
FINAL SINGLE POINT ENERGY      -998.125104503855
Dispersion correction             ... done (  0.0 sec)
Dispersion correction           -0.011120889
FINAL SINGLE POINT ENERGY      -998.125121938161
Dispersion correction             ... done (  0.0 sec)
Dispersion correction           -0.011120720
FINAL SINGLE POINT ENERGY      -998.125125072190
Dispersion correction             ... done (  0.0 sec)
                    ***********************HURRAY********************

CARTESIAN COORDINATES (ANGSTROEM)
---------------------------------
  C     -2.683515   -0.151665   -0.069237
  C     -1.888435   -1.440409   -0.258123
  H     -3.063585    0.184906   -1.041578
  C     -1.925295    1.011721    0.572506
  H     -3.565077   -0.386148    0.538295
  C     -0.916328    1.666382   -0.371155
  H     -1.446081    0.682989    1.498658
  H     -2.660164    1.771366    0.858935
  C     -0.580539   -1.327001   -1.038807
  H     -2.526316   -2.164698   -0.776147
  H     -1.670310   -1.872580    0.722320
  C      0.458651    1.011491   -0.571234
  H     -0.731927    2.696603   -0.056309
  H     -1.371270    1.739020   -1.363418
  C      0.543480   -0.515400   -0.408569
  H     -0.752535   -0.873681   -2.021512
  H     -0.208910   -2.338630   -1.224240
  O      0.824778    1.320008   -1.891476
  H      1.191238    1.428785    0.123359
  H      1.496364   -0.783489   -0.857278
  O      3.002783    1.075058   -1.268636
  C      2.249580    1.344611   -2.211325
  O      2.440140    1.628632   -3.386855
  Cl     0.784535   -0.977611    1.337766

 Multiplicity           Mult            ....    1
 Number of Electrons    NEL             ....  102
 Basis Dimension        Dim             ....  450

ORBITAL ENERGIES
----------------

  NO   OCC          E(Eh)            E(eV)
   0   2.0000    -101.478628     -2761.3739
   1   2.0000     -19.072700      -518.9945
   2   2.0000     -18.995447      -516.8924
   3   2.0000     -18.988980      -516.7164
   4   2.0000     -10.219157      -278.0774
   5   2.0000     -10.205813      -277.7143
   6   2.0000     -10.187733      -277.2223
   7   2.0000     -10.171197      -276.7724
   8   2.0000     -10.169206      -276.7182
   9   2.0000     -10.167127      -276.6616
  10   2.0000     -10.164383      -276.5869
  11   2.0000     -10.149968      -276.1947
  12   2.0000      -9.431793      -256.6521
  13   2.0000      -7.183385      -195.4698
  14   2.0000      -7.175639      -195.2591
  15   2.0000      -7.175477      -195.2547
  16   2.0000      -1.022876       -27.8339
  17   2.0000      -0.936989       -25.4968
  18   2.0000      -0.893188       -24.3049
  19   2.0000      -0.857201       -23.3256
  20   2.0000      -0.814276       -22.1576
  21   2.0000      -0.766624       -20.8609
  22   2.0000      -0.734245       -19.9798
  23   2.0000      -0.651137       -17.7183
  24   2.0000      -0.645630       -17.5685
  25   2.0000      -0.566755       -15.4222
  26   2.0000      -0.534327       -14.5398
  27   2.0000      -0.493080       -13.4174
  28   2.0000      -0.485463       -13.2101
  29   2.0000      -0.466490       -12.6938
  30   2.0000      -0.434457       -11.8222
  31   2.0000      -0.410107       -11.1596
  32   2.0000      -0.406518       -11.0619
  33   2.0000      -0.398460       -10.8427
  34   2.0000      -0.383655       -10.4398
  35   2.0000      -0.373494       -10.1633
  36   2.0000      -0.360154        -9.8003
  37   2.0000      -0.348322        -9.4783
  38   2.0000      -0.334209        -9.0943
  39   2.0000      -0.324073        -8.8185
  40   2.0000      -0.318341        -8.6625
  41   2.0000      -0.314592        -8.5605
  42   2.0000      -0.303585        -8.2610
  43   2.0000      -0.302572        -8.2334
  44   2.0000      -0.279582        -7.6078
  45   2.0000      -0.264853        -7.2070
  46   2.0000      -0.258404        -7.0315
  47   2.0000      -0.211628        -5.7587
  48   2.0000      -0.189733        -5.1629
  49   2.0000      -0.174053        -4.7362
  50   2.0000      -0.157529        -4.2866
  51   0.0000       0.205951         5.6042
  52   0.0000       0.229775         6.2525
  53   0.0000       0.240755         6.5513
  54   0.0000       0.245296         6.6749
  55   0.0000       0.253029         6.8853

MULLIKEN ATOMIC CHARGES
-----------------------
   0 C :   -0.191424
   1 C :   -0.201451
   2 H :    0.082640
   3 C :   -0.152947
   4 H :    0.074383
   5 C :   -0.176987
   6 H :    0.099736
   7 H :    0.074381
   8 C :   -0.229191
   9 H :    0.074935
  10 H :    0.097703
  11 C :    0.055311
  12 H :    0.088997
  13 H :    0.100512
  14 C :    0.046106
  15 H :    0.128396
  16 H :    0.095540
  17 O :   -0.339733
  18 H :    0.073703
  19 H :    0.152781
  20 O :   -0.546110
  21 C :    0.345269
  22 O :   -0.513157
  23 Cl:   -0.239395
Sum of atomic charges:   -1.0000000

LOEWDIN ATOMIC CHARGES
----------------------
   0 C :   -0.275105
   1 C :   -0.283755
   2 H :    0.131372
   3 C :   -0.273643
   4 H :    0.126390
   5 C :   -0.244926
   6 H :    0.130339
   7 H :    0.127409
   8 C :   -0.267869
   9 H :    0.128813
  10 H :    0.129283
  11 C :   -0.359076
  12 H :    0.133059
  13 H :    0.141167
  14 C :   -0.425746
  15 H :    0.153240
  16 H :    0.134939
  17 O :    0.168819
  18 H :    0.139612
  19 H :    0.155108
  20 O :   -0.081354
  21 C :   -0.768566
  22 O :   -0.062988
  23 Cl:    0.243477

  Mayer bond orders larger than 0.100000
B(  0-C ,  1-C ) :   0.9975 B(  0-C ,  2-H ) :   0.9801 B(  0-C ,  3-C ) :   0.9749
B(  0-C ,  4-H ) :   0.9741 B(  1-C ,  8-C ) :   0.9678 B(  1-C ,  9-H ) :   0.9735
B(  1-C , 10-H ) :   0.9713 B(  3-C ,  5-C ) :   0.9353 B(  3-C ,  6-H ) :   0.9672
B(  3-C ,  7-H ) :   0.9752 B(  5-C , 11-C ) :   0.9383 B(  5-C , 12-H ) :   0.9810
B(  5-C , 13-H ) :   0.9747 B(  8-C , 14-C ) :   0.9766 B(  8-C , 15-H ) :   0.9606
B(  8-C , 16-H ) :   0.9789 B( 11-C , 14-C ) :   0.9922 B( 11-C , 17-O ) :   1.0285
B( 11-C , 18-H ) :   0.9667 B( 14-C , 19-H ) :   0.9658 B( 14-C , 23-Cl) :   0.9011
B( 17-O , 21-C ) :   0.9189 B( 20-O , 21-C ) :   1.7611 B( 21-C , 22-O ) :   1.9600

Dispersion correction           -0.011119440
FINAL SINGLE POINT ENERGY      -998.125125977397

DIPOLE MOMENT
-------------

Method             : SCF
Type of density    : Electron Density
Multiplicity       :   1
Irrep              :   0
Energy             :  -998.1140065371068886 Eh
Relativity type    :
Basis              : AO
                                X                 Y                 Z
Electronic contribution:     14.620802283      -0.410619343       1.587188991
Nuclear contribution   :    -18.217442253      -1.096712481       0.618155903
                        -----------------------------------------
Total Dipole Moment    :     -3.596639971      -1.507331825       2.205344895
                        -----------------------------------------
Magnitude (a.u.)       :      4.480113214
Magnitude (Debye)      :     11.387542808

VIBRATIONAL FREQUENCIES
-----------------------

Scaling factor for frequencies =  1.000000000  (already applied!)

     0:       0.00 cm**-1
     1:       0.00 cm**-1
     2:       0.00 cm**-1
     3:       0.00 cm**-1
     4:       0.00 cm**-1
     5:       0.00 cm**-1
     6:      32.38 cm**-1
     7:      64.21 cm**-1
     8:      84.16 cm**-1
     9:     123.92 cm**-1
    10:     178.59 cm**-1
    11:     217.59 cm**-1
    12:     229.27 cm**-1
    13:     277.80 cm**-1
    14:     301.53 cm**-1
    15:     344.87 cm**-1
    16:     366.79 cm**-1
    17:     379.18 cm**-1
    18:     440.32 cm**-1
    19:     488.83 cm**-1
    20:     605.76 cm**-1
    21:     631.31 cm**-1
    22:     700.47 cm**-1
    23:     737.25 cm**-1
    24:     771.07 cm**-1
    25:     826.83 cm**-1
    26:     834.73 cm**-1
    27:     839.31 cm**-1
    28:     848.07 cm**-1
    29:     883.68 cm**-1
    30:     906.78 cm**-1
    31:     971.80 cm**-1
    32:    1001.21 cm**-1
    33:    1043.41 cm**-1
    34:    1049.98 cm**-1
    35:    1091.32 cm**-1
    36:    1119.58 cm**-1
    37:    1147.30 cm**-1
    38:    1160.66 cm**-1
    39:    1227.18 cm**-1
    40:    1230.07 cm**-1
    41:    1245.51 cm**-1
    42:    1279.42 cm**-1
    43:    1299.31 cm**-1
    44:    1311.04 cm**-1
    45:    1318.91 cm**-1
    46:    1353.74 cm**-1
    47:    1354.46 cm**-1
    48:    1376.87 cm**-1
    49:    1394.10 cm**-1
    50:    1403.36 cm**-1
    51:    1411.18 cm**-1
    52:    1411.32 cm**-1
    53:    1427.06 cm**-1
    54:    1484.64 cm**-1
    55:    1485.31 cm**-1
    56:    1490.91 cm**-1
    57:    1500.09 cm**-1
    58:    1505.07 cm**-1
    59:    1832.30 cm**-1
    60:    3021.45 cm**-1
    61:    3041.73 cm**-1
    62:    3043.41 cm**-1
    63:    3053.51 cm**-1
    64:    3058.70 cm**-1
    65:    3063.68 cm**-1
    66:    3081.76 cm**-1
    67:    3088.84 cm**-1
    68:    3097.49 cm**-1
    69:    3099.90 cm**-1
    70:    3107.02 cm**-1
    71:    3159.92 cm**-1

IR SPECTRUM
-----------

 Mode   freq       eps      Int      T**2         TX        TY        TZ
       cm**-1   L/(mol*cm) km/mol    a.u.
----------------------------------------------------------------------------
  6:     32.38   0.000618    3.12  0.005956  (-0.063060 -0.029590 -0.033221)
  7:     64.21   0.000022    0.11  0.000108  ( 0.008230  0.005932  0.002143)
  8:     84.16   0.000986    4.98  0.003654  (-0.003479 -0.058504  0.014808)
  9:    123.92   0.000112    0.56  0.000282  (-0.006807  0.007125 -0.013580)
 10:    178.59   0.000173    0.88  0.000303  (-0.010952  0.007935  0.010963)
 11:    217.59   0.001111    5.62  0.001594  (-0.021290 -0.026841  0.020500)
 12:    229.27   0.000624    3.15  0.000849  ( 0.023428  0.016844 -0.004107)
 13:    277.80   0.000149    0.75  0.000167  ( 0.001324  0.012797 -0.001358)
 14:    301.53   0.000330    1.67  0.000342  ( 0.002846  0.018263 -0.000344)
 15:    344.87   0.000102    0.52  0.000092  ( 0.007131 -0.004932  0.004132)
 16:    366.79   0.000352    1.78  0.000300  ( 0.014289 -0.009369  0.002809)
 17:    379.18   0.000267    1.35  0.000220  ( 0.006492  0.010102  0.008714)
 18:    440.32   0.000690    3.49  0.000489  ( 0.000859 -0.000299  0.022098)
 19:    488.83   0.000106    0.53  0.000067  ( 0.001466 -0.001271 -0.007980)
 20:    605.76   0.000177    0.90  0.000091  ( 0.005064  0.001851 -0.007892)
 21:    631.31   0.002940   14.86  0.001453  ( 0.004196 -0.017922  0.033383)
 22:    700.47   0.000278    1.40  0.000124  ( 0.009953 -0.003256  0.003737)
 23:    737.25   0.002632   13.30  0.001114  ( 0.017029 -0.013312  0.025435)
 24:    771.07   0.004553   23.01  0.001843  (-0.030241  0.010794 -0.028489)
 25:    826.83   0.061064  308.59  0.023047  (-0.129908 -0.020263  0.075894)
 26:    834.73   0.010035   50.71  0.003752  (-0.038346 -0.045230  0.015340)
 27:    839.31   0.003074   15.53  0.001143  (-0.026139 -0.021429  0.000622)
 28:    848.07   0.010269   51.90  0.003779  ( 0.050847 -0.003168 -0.034400)
 29:    883.68   0.012084   61.07  0.004267  ( 0.064766 -0.002499 -0.008144)
 30:    906.78   0.000325    1.64  0.000112  ( 0.005579  0.001763 -0.008809)
 31:    971.80   0.001565    7.91  0.000503  ( 0.013796 -0.009626  0.014817)
 32:   1001.21   0.007926   40.06  0.002470  ( 0.025275  0.022724 -0.036266)
 33:   1043.41   0.000199    1.00  0.000059  (-0.004989 -0.000965 -0.005794)
 34:   1049.98   0.000192    0.97  0.000057  (-0.005593 -0.000296  0.005072)
 35:   1091.32   0.024201  122.30  0.006920  ( 0.063034  0.013554 -0.052568)
 36:   1119.58   0.008068   40.77  0.002249  ( 0.024803  0.022339 -0.033682)
 37:   1147.30   0.001286    6.50  0.000350  ( 0.013354 -0.004421 -0.012323)
 38:   1160.66   0.008599   43.46  0.002312  ( 0.040531  0.007519 -0.024755)
 39:   1227.18   0.000128    0.65  0.000033  (-0.005151  0.002187  0.001134)
 40:   1230.07   0.002822   14.26  0.000716  (-0.010412 -0.013709  0.020484)
 41:   1245.51   0.001163    5.88  0.000291  ( 0.009706  0.010351 -0.009483)
 42:   1279.42   0.000484    2.45  0.000118  ( 0.003532 -0.004986  0.008984)
 43:   1299.31   0.009473   47.87  0.002275  (-0.039588 -0.007532  0.025519)
 44:   1311.04   0.022687  114.65  0.005400  (-0.070611 -0.006454  0.019303)
 45:   1318.91   0.012839   64.88  0.003038  ( 0.055113 -0.000595 -0.000035)
 46:   1353.74   0.012123   61.26  0.002795  ( 0.047736  0.007050 -0.021590)
 47:   1354.46   0.006944   35.09  0.001600  ( 0.032064  0.016310 -0.017485)
 48:   1376.87   0.000513    2.59  0.000116  (-0.006081 -0.004624  0.007612)
 49:   1394.10   0.000599    3.03  0.000134  ( 0.006083  0.003457 -0.009231)
 50:   1403.36   0.000246    1.24  0.000055  (-0.005880 -0.001690  0.004162)
 51:   1411.18   0.000476    2.41  0.000105  (-0.005290  0.005372 -0.006958)
 52:   1411.32   0.000014    0.07  0.000003  (-0.001645  0.000558  0.000341)
 53:   1427.06   0.000871    4.40  0.000190  ( 0.007971 -0.006303 -0.009338)
 54:   1484.64   0.000830    4.20  0.000175  ( 0.006028 -0.007012 -0.009437)
 55:   1485.31   0.000250    1.26  0.000052  (-0.001160  0.007124 -0.000621)
 56:   1490.91   0.001722    8.70  0.000360  (-0.000106 -0.017945 -0.006199)
 57:   1500.09   0.002225   11.24  0.000463  (-0.007716 -0.002365  0.019942)
 58:   1505.07   0.001670    8.44  0.000346  ( 0.016637 -0.001025  0.008273)
 59:   1832.30   0.138299  698.91  0.023554  ( 0.009759 -0.043480  0.146862)
 60:   3021.45   0.004979   25.16  0.000514  ( 0.020526 -0.002846  0.009211)
 61:   3041.73   0.004776   24.14  0.000490  (-0.001559  0.019562  0.010241)
 62:   3043.41   0.007834   39.59  0.000803  (-0.027736 -0.002577  0.005232)
 63:   3053.51   0.010767   54.41  0.001100  (-0.005723  0.022608  0.023591)
 64:   3058.70   0.010076   50.92  0.001028  ( 0.004993  0.030123 -0.009779)
 65:   3063.68   0.014086   71.19  0.001435  (-0.035823 -0.005075  0.011215)
 66:   3081.76   0.001308    6.61  0.000132  ( 0.001817 -0.010329  0.004739)
 67:   3088.84   0.006939   35.07  0.000701  (-0.001330  0.021611  0.015239)
 68:   3097.49   0.001292    6.53  0.000130  (-0.007729  0.008325  0.001069)
 69:   3099.90   0.009769   49.37  0.000983  ( 0.008579 -0.026783  0.013876)
 70:   3107.02   0.012331   62.32  0.001238  (-0.012566 -0.007178 -0.032079)
 71:   3159.92   0.000375    1.90  0.000037  ( 0.003234  0.005035  0.001124)

--------------------------
THERMOCHEMISTRY AT 298.15K
--------------------------

Temperature         ...   298.15 K
Pressure            ...     1.00 atm
Total Mass          ...   191.63 AMU
Quasi RRHO          ...     True
Cut-Off Frequency   ...     1.00 cm^-1

Throughout the following assumptions are being made:
  (1) The electronic state is orbitally nondegenerate
  (2) There are no thermally accessible electronically excited states
  (3) Hindered rotations indicated by low frequency modes are not
      treated as such but are treated as vibrations and this may
      cause some error
  (4) All equations used are the standard statistical mechanics
      equations for an ideal gas
  (5) All vibrations are strictly harmonic

freq.      32.38  E(vib)   ...       0.55
freq.      64.21  E(vib)   ...       0.51
freq.      84.16  E(vib)   ...       0.48
freq.     123.92  E(vib)   ...       0.43
freq.     178.59  E(vib)   ...       0.37
freq.     217.59  E(vib)   ...       0.33
freq.     229.27  E(vib)   ...       0.32
freq.     277.80  E(vib)   ...       0.28
freq.     301.53  E(vib)   ...       0.26
freq.     344.87  E(vib)   ...       0.23
freq.     366.79  E(vib)   ...       0.22
freq.     379.18  E(vib)   ...       0.21
freq.     440.32  E(vib)   ...       0.17
freq.     488.83  E(vib)   ...       0.15
freq.     605.76  E(vib)   ...       0.10
freq.     631.31  E(vib)   ...       0.09
freq.     700.47  E(vib)   ...       0.07
freq.     737.25  E(vib)   ...       0.06
freq.     771.07  E(vib)   ...       0.05
freq.     826.83  E(vib)   ...       0.04
freq.     834.73  E(vib)   ...       0.04
freq.     839.31  E(vib)   ...       0.04
freq.     848.07  E(vib)   ...       0.04
freq.     883.68  E(vib)   ...       0.04
freq.     906.78  E(vib)   ...       0.03
freq.     971.80  E(vib)   ...       0.03
freq.    1001.21  E(vib)   ...       0.02
freq.    1043.41  E(vib)   ...       0.02
freq.    1049.98  E(vib)   ...       0.02
freq.    1091.32  E(vib)   ...       0.02
freq.    1119.58  E(vib)   ...       0.01
freq.    1147.30  E(vib)   ...       0.01
freq.    1160.66  E(vib)   ...       0.01
freq.    1227.18  E(vib)   ...       0.01
freq.    1230.07  E(vib)   ...       0.01
freq.    1245.51  E(vib)   ...       0.01
freq.    1279.42  E(vib)   ...       0.01
freq.    1299.31  E(vib)   ...       0.01
freq.    1311.04  E(vib)   ...       0.01
freq.    1318.91  E(vib)   ...       0.01
freq.    1353.74  E(vib)   ...       0.01
freq.    1354.46  E(vib)   ...       0.01
freq.    1376.87  E(vib)   ...       0.01
freq.    1394.10  E(vib)   ...       0.00
freq.    1403.36  E(vib)   ...       0.00
freq.    1411.18  E(vib)   ...       0.00
freq.    1411.32  E(vib)   ...       0.00
freq.    1427.06  E(vib)   ...       0.00
freq.    1484.64  E(vib)   ...       0.00
freq.    1485.31  E(vib)   ...       0.00
freq.    1490.91  E(vib)   ...       0.00
freq.    1500.09  E(vib)   ...       0.00
freq.    1505.07  E(vib)   ...       0.00
freq.    1832.30  E(vib)   ...       0.00
freq.    3021.45  E(vib)   ...       0.00
freq.    3041.73  E(vib)   ...       0.00
freq.    3043.41  E(vib)   ...       0.00
freq.    3053.51  E(vib)   ...       0.00
freq.    3058.70  E(vib)   ...       0.00
freq.    3063.68  E(vib)   ...       0.00
freq.    3081.76  E(vib)   ...       0.00
freq.    3088.84  E(vib)   ...       0.00
freq.    3097.49  E(vib)   ...       0.00
freq.    3099.90  E(vib)   ...       0.00
freq.    3107.02  E(vib)   ...       0.00
freq.    3159.92  E(vib)   ...       0.00

------------
INNER ENERGY
------------

The inner energy is: U= E(el) + E(ZPE) + E(vib) + E(rot) + E(trans)
    E(el)   - is the total energy from the electronic structure calculation
              = E(kin-el) + E(nuc-el) + E(el-el) + E(nuc-nuc)
    E(ZPE)  - the the zero temperature vibrational energy from the frequency calculation
    E(vib)  - the the finite temperature correction to E(ZPE) due to population
              of excited vibrational states
    E(rot)  - is the rotational thermal energy
    E(trans)- is the translational thermal energy

Summary of contributions to the inner energy U:
Electronic energy                ...   -998.12512598 Eh
Zero point energy                ...      0.19810766 Eh     124.31 kcal/mol
Thermal vibrational correction   ...      0.00857738 Eh       5.38 kcal/mol
Thermal rotational correction    ...      0.00141627 Eh       0.89 kcal/mol
Thermal translational correction ...      0.00141627 Eh       0.89 kcal/mol
-----------------------------------------------------------------------
Total thermal energy                   -997.91560840 Eh

Summary of corrections to the electronic energy:
(perhaps to be used in another calculation)
Total thermal correction                  0.01140992 Eh       7.16 kcal/mol
Non-thermal (ZPE) correction              0.19810766 Eh     124.31 kcal/mol
-----------------------------------------------------------------------
Total correction                          0.20951758 Eh     131.47 kcal/mol

--------
ENTHALPY
--------

The enthalpy is H = U + kB*T
                kB is Boltzmann's constant
Total thermal energy              ...   -997.91560840 Eh
Thermal Enthalpy correction       ...      0.00094421 Eh       0.59 kcal/mol
-----------------------------------------------------------------------
Total Enthalpy                    ...   -997.91466419 Eh

Note: Only C1 symmetry has been detected, increase convergence thresholds
      if your molecule has a higher symmetry. Symmetry factor of 1.0 is
      used for the rotational entropy correction.

Note: Rotational entropy computed according to Herzberg
Infrared and Raman Spectra, Chapter V,1, Van Nostrand Reinhold, 1945
Point Group:  C1, Symmetry Number:   1
Rotational constants in cm-1:     0.041059     0.018591     0.015863

Vibrational entropy computed according to the QRRHO of S. Grimme
Chem.Eur.J. 2012 18 9955 using a reference frequency of 100.0 cm-1

-------
ENTROPY
-------

The entropy contributions are T*S = T*(S(el)+S(vib)+S(rot)+S(trans))
     S(el)   - electronic entropy
     S(vib)  - vibrational entropy
     S(rot)  - rotational entropy
     S(trans)- translational entropy
The entropies will be listed as multiplied by the temperature to get
units of energy

Electronic entropy                ...      0.00000000 Eh      0.00 kcal/mol
Vibrational entropy               ...      0.01487809 Eh      9.34 kcal/mol
Rotational entropy                ...      0.01485560 Eh      9.32 kcal/mol
Translational entropy             ...      0.01979241 Eh     12.42 kcal/mol
-----------------------------------------------------------------------
Final entropy term                ...      0.04952610 Eh     31.08 kcal/mol

                             ****ORCA TERMINATED NORMALLY****
TOTAL RUN TIME: 0 days 0 hours 8 minutes 53 seconds 341 msec
